file 6057780 1781455876                                         
version 3
run Scenario3-0-20260614-16:47:03-5458
attr configname Scenario3
attr datetime 20260614-16:47:03
attr datetimef 20260614-164703
attr experiment Scenario3
attr inifile omnetpp.ini
attr iterationvars ""
attr iterationvarsd ""
attr iterationvarsf ""
attr measurement ""
attr network org.car2x.veins.nodes.Scenario
attr processid 5458
attr repetition 0
attr replication #0
attr resultdir results
attr runnumber 0
attr seedset 0
config image-path ../../../veins/images
config description "Obstacle Shadowing (Buildings block signals)"
config *.annotations.draw true
config *.obstacles.obstacles "xmldoc(\"config_3.xml\", \"//AnalogueModel[@type='SimpleObstacleShadowing']/obstacles\")"
config *.**.nic.phy80211p.decider "xmldoc(\"config_3.xml\")"
config *.**.nic.phy80211p.analogueModels "xmldoc(\"config_3.xml\")"
config network org.car2x.veins.nodes.Scenario
config sim-time-limit 100s
config *.playgroundSizeX 600m
config *.playgroundSizeY 600m
config *.playgroundSizeZ 50m
config *.manager.updateInterval 0.1s
config *.manager.host "\"localhost\""
config *.manager.port 9999
config *.manager.autoShutdown true
config *.manager.launchConfig "xmldoc(\"simulation.launchd.xml\")"
config *.node[*].veinsmobility.x 0
config *.node[*].veinsmobility.y 0
config *.node[*].veinsmobility.z 1.895
config *.node[*].applType "\"TraCIDemo11p\""
config *.node[*].appl.headerLength "80 bit"
config *.node[*].appl.sendBeacons true
config *.node[*].appl.dataOnSch false
config *.node[*].appl.beaconInterval 0.1s
config *.connectionManager.sendDirect true
config *.connectionManager.maxInterfDist 500m
config *.connectionManager.drawMaxIntfDist false
config *.**.nic.mac1609_4.useServiceChannel false
config *.**.nic.mac1609_4.txPower 20mW
config *.**.nic.mac1609_4.bitrate 6Mbps
config *.**.nic.phy80211p.minPowerLevel -110dBm
config *.**.nic.phy80211p.useNoiseFloor true
config *.**.nic.phy80211p.noiseFloor -98dBm
config *.**.nic.phy80211p.usePropagationDelay true

vector 0 Scenario.node[0].nic.phy80211p RadioState ETV
vector 1 Scenario.node[0].nic.phy80211p RadioChannel ETV
vector 2 Scenario.manager posx ETV
vector 3 Scenario.manager posy ETV
vector 4 Scenario.manager speed ETV
vector 5 Scenario.manager acceleration ETV
vector 6 Scenario.manager co2emission ETV
vector 7 Scenario.node[1].nic.phy80211p RadioState ETV
vector 8 Scenario.node[1].nic.phy80211p RadioChannel ETV
vector 9 Scenario.manager posx ETV
vector 10 Scenario.manager posy ETV
vector 11 Scenario.manager speed ETV
vector 12 Scenario.manager acceleration ETV
vector 13 Scenario.manager co2emission ETV
vector 14 Scenario.node[2].nic.phy80211p RadioState ETV
vector 15 Scenario.node[2].nic.phy80211p RadioChannel ETV
vector 16 Scenario.manager posx ETV
vector 17 Scenario.manager posy ETV
vector 18 Scenario.manager speed ETV
vector 19 Scenario.manager acceleration ETV
vector 20 Scenario.manager co2emission ETV
vector 21 Scenario.node[3].nic.phy80211p RadioState ETV
vector 22 Scenario.node[3].nic.phy80211p RadioChannel ETV
vector 23 Scenario.manager posx ETV
vector 24 Scenario.manager posy ETV
vector 25 Scenario.manager speed ETV
vector 26 Scenario.manager acceleration ETV
vector 27 Scenario.manager co2emission ETV
vector 28 Scenario.node[4].nic.phy80211p RadioState ETV
vector 29 Scenario.node[4].nic.phy80211p RadioChannel ETV
vector 30 Scenario.manager posx ETV
vector 31 Scenario.manager posy ETV
vector 32 Scenario.manager speed ETV
vector 33 Scenario.manager acceleration ETV
vector 34 Scenario.manager co2emission ETV
vector 35 Scenario.node[5].nic.phy80211p RadioState ETV
vector 36 Scenario.node[5].nic.phy80211p RadioChannel ETV
vector 37 Scenario.manager posx ETV
vector 38 Scenario.manager posy ETV
vector 39 Scenario.manager speed ETV
vector 40 Scenario.manager acceleration ETV
vector 41 Scenario.manager co2emission ETV
vector 42 Scenario.node[6].nic.phy80211p RadioState ETV
vector 43 Scenario.node[6].nic.phy80211p RadioChannel ETV
vector 44 Scenario.manager posx ETV
vector 45 Scenario.manager posy ETV
vector 46 Scenario.manager speed ETV
vector 47 Scenario.manager acceleration ETV
vector 48 Scenario.manager co2emission ETV
vector 49 Scenario.node[7].nic.phy80211p RadioState ETV
vector 50 Scenario.node[7].nic.phy80211p RadioChannel ETV
vector 51 Scenario.manager posx ETV
vector 52 Scenario.manager posy ETV
vector 53 Scenario.manager speed ETV
vector 54 Scenario.manager acceleration ETV
vector 55 Scenario.manager co2emission ETV
vector 56 Scenario.node[8].nic.phy80211p RadioState ETV
vector 57 Scenario.node[8].nic.phy80211p RadioChannel ETV
vector 58 Scenario.manager posx ETV
vector 59 Scenario.manager posy ETV
vector 60 Scenario.manager speed ETV
vector 61 Scenario.manager acceleration ETV
vector 62 Scenario.manager co2emission ETV
vector 63 Scenario.node[9].nic.phy80211p RadioState ETV
vector 64 Scenario.node[9].nic.phy80211p RadioChannel ETV
vector 65 Scenario.manager posx ETV
vector 66 Scenario.manager posy ETV
vector 67 Scenario.manager speed ETV
vector 68 Scenario.manager acceleration ETV
vector 69 Scenario.manager co2emission ETV
vector 70 Scenario.node[10].nic.phy80211p RadioState ETV
vector 71 Scenario.node[10].nic.phy80211p RadioChannel ETV
vector 72 Scenario.manager posx ETV
vector 73 Scenario.manager posy ETV
vector 74 Scenario.manager speed ETV
vector 75 Scenario.manager acceleration ETV
vector 76 Scenario.manager co2emission ETV
vector 77 Scenario.node[11].nic.phy80211p RadioState ETV
vector 78 Scenario.node[11].nic.phy80211p RadioChannel ETV
vector 79 Scenario.manager posx ETV
vector 80 Scenario.manager posy ETV
vector 81 Scenario.manager speed ETV
vector 82 Scenario.manager acceleration ETV
vector 83 Scenario.manager co2emission ETV
vector 84 Scenario.node[12].nic.phy80211p RadioState ETV
vector 85 Scenario.node[12].nic.phy80211p RadioChannel ETV
vector 86 Scenario.manager posx ETV
vector 87 Scenario.manager posy ETV
vector 88 Scenario.manager speed ETV
vector 89 Scenario.manager acceleration ETV
vector 90 Scenario.manager co2emission ETV
vector 91 Scenario.node[13].nic.phy80211p RadioState ETV
vector 92 Scenario.node[13].nic.phy80211p RadioChannel ETV
vector 93 Scenario.manager posx ETV
vector 94 Scenario.manager posy ETV
vector 95 Scenario.manager speed ETV
vector 96 Scenario.manager acceleration ETV
vector 97 Scenario.manager co2emission ETV
vector 98 Scenario.node[14].nic.phy80211p RadioState ETV
vector 99 Scenario.node[14].nic.phy80211p RadioChannel ETV
vector 100 Scenario.manager posx ETV
vector 101 Scenario.manager posy ETV
vector 102 Scenario.manager speed ETV
vector 103 Scenario.manager acceleration ETV
vector 104 Scenario.manager co2emission ETV
vector 105 Scenario.node[15].nic.phy80211p RadioState ETV
vector 106 Scenario.node[15].nic.phy80211p RadioChannel ETV
vector 107 Scenario.manager posx ETV
vector 108 Scenario.manager posy ETV
vector 109 Scenario.manager speed ETV
vector 110 Scenario.manager acceleration ETV
vector 111 Scenario.manager co2emission ETV
vector 112 Scenario.node[16].nic.phy80211p RadioState ETV
vector 113 Scenario.node[16].nic.phy80211p RadioChannel ETV
vector 114 Scenario.manager posx ETV
vector 115 Scenario.manager posy ETV
vector 116 Scenario.manager speed ETV
vector 117 Scenario.manager acceleration ETV
vector 118 Scenario.manager co2emission ETV
vector 119 Scenario.node[17].nic.phy80211p RadioState ETV
vector 120 Scenario.node[17].nic.phy80211p RadioChannel ETV
vector 121 Scenario.manager posx ETV
vector 122 Scenario.manager posy ETV
vector 123 Scenario.manager speed ETV
vector 124 Scenario.manager acceleration ETV
vector 125 Scenario.manager co2emission ETV
vector 126 Scenario.node[18].nic.phy80211p RadioState ETV
vector 127 Scenario.node[18].nic.phy80211p RadioChannel ETV
vector 128 Scenario.manager posx ETV
vector 129 Scenario.manager posy ETV
vector 130 Scenario.manager speed ETV
vector 131 Scenario.manager acceleration ETV
vector 132 Scenario.manager co2emission ETV
vector 133 Scenario.node[19].nic.phy80211p RadioState ETV
vector 134 Scenario.node[19].nic.phy80211p RadioChannel ETV
vector 135 Scenario.manager posx ETV
vector 136 Scenario.manager posy ETV
vector 137 Scenario.manager speed ETV
vector 138 Scenario.manager acceleration ETV
vector 139 Scenario.manager co2emission ETV
vector 140 Scenario.node[20].nic.phy80211p RadioState ETV
vector 141 Scenario.node[20].nic.phy80211p RadioChannel ETV
vector 142 Scenario.manager posx ETV
vector 143 Scenario.manager posy ETV
vector 144 Scenario.manager speed ETV
vector 145 Scenario.manager acceleration ETV
vector 146 Scenario.manager co2emission ETV
vector 147 Scenario.node[21].nic.phy80211p RadioState ETV
vector 148 Scenario.node[21].nic.phy80211p RadioChannel ETV
vector 149 Scenario.manager posx ETV
vector 150 Scenario.manager posy ETV
vector 151 Scenario.manager speed ETV
vector 152 Scenario.manager acceleration ETV
vector 153 Scenario.manager co2emission ETV
vector 154 Scenario.node[22].nic.phy80211p RadioState ETV
vector 155 Scenario.node[22].nic.phy80211p RadioChannel ETV
vector 156 Scenario.manager posx ETV
vector 157 Scenario.manager posy ETV
vector 158 Scenario.manager speed ETV
vector 159 Scenario.manager acceleration ETV
vector 160 Scenario.manager co2emission ETV
vector 161 Scenario.node[23].nic.phy80211p RadioState ETV
vector 162 Scenario.node[23].nic.phy80211p RadioChannel ETV
vector 163 Scenario.manager posx ETV
vector 164 Scenario.manager posy ETV
vector 165 Scenario.manager speed ETV
vector 166 Scenario.manager acceleration ETV
vector 167 Scenario.manager co2emission ETV
vector 168 Scenario.node[24].nic.phy80211p RadioState ETV
vector 169 Scenario.node[24].nic.phy80211p RadioChannel ETV
vector 170 Scenario.manager posx ETV
vector 171 Scenario.manager posy ETV
vector 172 Scenario.manager speed ETV
vector 173 Scenario.manager acceleration ETV
vector 174 Scenario.manager co2emission ETV
vector 175 Scenario.node[25].nic.phy80211p RadioState ETV
vector 176 Scenario.node[25].nic.phy80211p RadioChannel ETV
vector 177 Scenario.manager posx ETV
vector 178 Scenario.manager posy ETV
vector 179 Scenario.manager speed ETV
vector 180 Scenario.manager acceleration ETV
vector 181 Scenario.manager co2emission ETV
vector 182 Scenario.node[26].nic.phy80211p RadioState ETV
vector 183 Scenario.node[26].nic.phy80211p RadioChannel ETV
vector 184 Scenario.manager posx ETV
vector 185 Scenario.manager posy ETV
97	10315 3712 31863 245642 13.3 26.1 129 0.973 10.405123236858 470.80194457847 2395.6992644543
96	14027 4014 31863 245642 13.3 26.1 129 -1.1087711269502 2.5933619049663 133.75030784636 298.53172683127
95	18041 3935 31118 245642 13.2 26.1 130 0.25331873658695 13.697302625012 1333.2553055902 16072.609606924
94	21976 3949 30373 245642 13.1 26.1 131 187.3 320.62553055902 31382.019746885 7752918.9641213
93	25925 2531 30373 245642 13.1 26.1 131 23.4 23.4 3065.4 71730.36
vector 186 Scenario.manager speed ETV
vector 187 Scenario.manager acceleration ETV
vector 188 Scenario.manager co2emission ETV
vector 189 Scenario.node[27].nic.phy80211p RadioState ETV
vector 190 Scenario.node[27].nic.phy80211p RadioChannel ETV
vector 191 Scenario.manager posx ETV
vector 192 Scenario.manager posy ETV
vector 193 Scenario.node[28].nic.phy80211p RadioState ETV
vector 194 Scenario.node[28].nic.phy80211p RadioChannel ETV
vector 195 Scenario.manager posx ETV
vector 196 Scenario.manager posy ETV
vector 197 Scenario.manager speed ETV
vector 198 Scenario.manager acceleration ETV
vector 199 Scenario.manager co2emission ETV
vector 200 Scenario.manager speed ETV
vector 201 Scenario.manager acceleration ETV
vector 202 Scenario.manager co2emission ETV
vector 203 Scenario.node[29].nic.phy80211p RadioState ETV
vector 204 Scenario.node[29].nic.phy80211p RadioChannel ETV
vector 205 Scenario.manager posx ETV
vector 206 Scenario.manager posy ETV
vector 207 Scenario.manager speed ETV
vector 208 Scenario.manager acceleration ETV
vector 209 Scenario.manager co2emission ETV
vector 210 Scenario.node[30].nic.phy80211p RadioState ETV
vector 211 Scenario.node[30].nic.phy80211p RadioChannel ETV
vector 212 Scenario.manager posx ETV
vector 213 Scenario.manager posy ETV
vector 214 Scenario.manager speed ETV
vector 215 Scenario.manager acceleration ETV
vector 216 Scenario.manager co2emission ETV
vector 217 Scenario.node[31].nic.phy80211p RadioState ETV
vector 218 Scenario.node[31].nic.phy80211p RadioChannel ETV
vector 219 Scenario.manager posx ETV
vector 220 Scenario.manager posy ETV
vector 221 Scenario.manager speed ETV
vector 222 Scenario.manager acceleration ETV
vector 223 Scenario.manager co2emission ETV
48	30178 7316 4754 443503 6.3 32.6 264 0.973 9.851755455354 862.24724363963 4138.4896921771
47	37494 8016 4754 443503 6.3 32.6 264 -4.5 2.5970629891846 128.06320315312 757.81104692619
46	45510 7950 4558 443503 6.2 32.6 265 0.25799588305899 13.131348027791 2778.8438581848 32346.517109217
45	53460 6849 4356 443503 6.1 32.6 266 176.6 316.7 58772.131184764 13727347.720774
44	60309 6447 4356 443503 6.1 32.6 266 26.6 166.55438581847 14786.89673331 1309801.203752
vector 224 Scenario.node[32].nic.phy80211p RadioState ETV
vector 225 Scenario.node[32].nic.phy80211p RadioChannel ETV
vector 226 Scenario.manager posx ETV
vector 227 Scenario.manager posy ETV
vector 228 Scenario.manager speed ETV
vector 229 Scenario.manager acceleration ETV
vector 230 Scenario.manager co2emission ETV
vector 231 Scenario.node[33].nic.phy80211p RadioState ETV
vector 232 Scenario.node[33].nic.phy80211p RadioChannel ETV
vector 233 Scenario.manager posx ETV
vector 234 Scenario.manager posy ETV
vector 235 Scenario.node[34].nic.phy80211p RadioState ETV
vector 236 Scenario.node[34].nic.phy80211p RadioChannel ETV
vector 237 Scenario.manager posx ETV
vector 238 Scenario.manager posy ETV
vector 239 Scenario.node[35].nic.phy80211p RadioState ETV
vector 240 Scenario.node[35].nic.phy80211p RadioChannel ETV
vector 241 Scenario.manager posx ETV
vector 242 Scenario.manager posy ETV
vector 243 Scenario.manager speed ETV
vector 244 Scenario.manager speed ETV
vector 245 Scenario.manager acceleration ETV
vector 246 Scenario.manager co2emission ETV
vector 247 Scenario.manager acceleration ETV
vector 248 Scenario.manager co2emission ETV
vector 249 Scenario.manager speed ETV
vector 250 Scenario.node[36].nic.phy80211p RadioState ETV
vector 251 Scenario.node[36].nic.phy80211p RadioChannel ETV
vector 252 Scenario.manager posx ETV
vector 253 Scenario.manager posy ETV
vector 254 Scenario.manager acceleration ETV
vector 255 Scenario.manager co2emission ETV
vector 256 Scenario.manager speed ETV
vector 257 Scenario.manager acceleration ETV
vector 258 Scenario.manager co2emission ETV
55	68351 8392 6836 659578 7.3 37.8 306 0.973 7.1991241121676 774.61922285036 2778.0299634674
54	76743 9416 6836 659578 7.3 37.8 306 -4.5 2.5953789065162 103.21574572686 555.82425317701
53	86159 9184 6575 659578 7.2 37.8 307 0.2516025879411 10.616659496242 2796.995047105 27336.417931756
52	95343 7952 6312 659578 7.1 37.8 308 37.3 176.6 41671.171877747 6433188.2576732
51	103295 7778 6312 659578 7.1 37.8 308 173.4 317.1995047105 63372.804804679 13667326.299804
vector 259 Scenario.node[37].nic.phy80211p RadioState ETV
vector 260 Scenario.node[37].nic.phy80211p RadioChannel ETV
vector 261 Scenario.manager posx ETV
vector 262 Scenario.manager posy ETV
vector 263 Scenario.manager speed ETV
vector 264 Scenario.manager acceleration ETV
vector 265 Scenario.manager co2emission ETV
vector 266 Scenario.node[38].nic.phy80211p RadioState ETV
vector 267 Scenario.node[38].nic.phy80211p RadioChannel ETV
vector 268 Scenario.manager posx ETV
vector 269 Scenario.manager posy ETV
vector 270 Scenario.manager speed ETV
vector 271 Scenario.manager acceleration ETV
vector 272 Scenario.manager co2emission ETV
vector 273 Scenario.node[39].nic.phy80211p RadioState ETV
vector 274 Scenario.node[39].nic.phy80211p RadioChannel ETV
vector 275 Scenario.manager posx ETV
vector 276 Scenario.manager posy ETV
vector 277 Scenario.manager speed ETV
vector 278 Scenario.manager acceleration ETV
vector 279 Scenario.manager co2emission ETV
vector 280 Scenario.node[40].nic.phy80211p RadioState ETV
vector 281 Scenario.node[40].nic.phy80211p RadioChannel ETV
vector 282 Scenario.manager posx ETV
vector 283 Scenario.manager posy ETV
vector 284 Scenario.manager speed ETV
vector 285 Scenario.manager acceleration ETV
vector 286 Scenario.manager co2emission ETV
vector 287 Scenario.node[41].nic.phy80211p RadioState ETV
vector 288 Scenario.node[41].nic.phy80211p RadioChannel ETV
vector 289 Scenario.manager posx ETV
vector 290 Scenario.manager posy ETV
vector 291 Scenario.manager speed ETV
vector 292 Scenario.manager acceleration ETV
vector 293 Scenario.manager co2emission ETV
vector 294 Scenario.node[42].nic.phy80211p RadioState ETV
vector 295 Scenario.node[42].nic.phy80211p RadioChannel ETV
vector 296 Scenario.manager posx ETV
vector 297 Scenario.manager posy ETV
vector 298 Scenario.manager speed ETV
vector 299 Scenario.manager acceleration ETV
vector 300 Scenario.manager co2emission ETV
vector 301 Scenario.node[43].nic.phy80211p RadioState ETV
vector 302 Scenario.node[43].nic.phy80211p RadioChannel ETV
vector 303 Scenario.manager posx ETV
vector 304 Scenario.manager posy ETV
vector 305 Scenario.manager speed ETV
vector 306 Scenario.manager acceleration ETV
vector 307 Scenario.manager co2emission ETV
vector 308 Scenario.node[44].nic.phy80211p RadioState ETV
vector 309 Scenario.node[44].nic.phy80211p RadioChannel ETV
vector 310 Scenario.manager posx ETV
vector 311 Scenario.manager posy ETV
vector 312 Scenario.manager speed ETV
vector 313 Scenario.manager acceleration ETV
vector 314 Scenario.manager co2emission ETV
6	113625 12296 22 1186019 0.3 47 468 0.973 11.57075190722 1740.7350560634 9749.4608919969
5	125921 13416 22 1186019 0.3 47 468 -4.5 2.6 152.36708273484 1709.8764066548
4	139337 13527 12 1186019 0.2 47 469 0.25446562165231 15.505396197811 5707.1860969598 77356.329614464
3	152864 12465 2 1186019 0.1 47 470 37.3 323.4 107938.42141173 29271678.5083
2	165329 10078 2 1186019 0.1 47 470 26.6 173.4 55978.929040727 8649384.9910638
vector 315 Scenario.node[45].nic.phy80211p RadioState ETV
vector 316 Scenario.node[45].nic.phy80211p RadioChannel ETV
vector 317 Scenario.manager posx ETV
vector 318 Scenario.manager posy ETV
vector 319 Scenario.node[46].nic.phy80211p RadioState ETV
vector 320 Scenario.node[46].nic.phy80211p RadioChannel ETV
vector 321 Scenario.manager posx ETV
vector 322 Scenario.manager posy ETV
vector 323 Scenario.manager speed ETV
vector 324 Scenario.manager speed ETV
vector 325 Scenario.manager acceleration ETV
vector 326 Scenario.manager co2emission ETV
vector 327 Scenario.manager acceleration ETV
vector 328 Scenario.manager co2emission ETV
vector 329 Scenario.node[47].nic.phy80211p RadioState ETV
vector 330 Scenario.node[47].nic.phy80211p RadioChannel ETV
vector 331 Scenario.manager posx ETV
vector 332 Scenario.manager posy ETV
vector 333 Scenario.manager speed ETV
vector 334 Scenario.manager acceleration ETV
vector 335 Scenario.manager co2emission ETV
vector 336 Scenario.node[48].nic.phy80211p RadioState ETV
vector 337 Scenario.node[48].nic.phy80211p RadioChannel ETV
vector 338 Scenario.manager posx ETV
vector 339 Scenario.manager posy ETV
vector 340 Scenario.manager speed ETV
vector 341 Scenario.manager acceleration ETV
vector 342 Scenario.manager co2emission ETV
vector 343 Scenario.node[49].nic.phy80211p RadioState ETV
vector 344 Scenario.node[49].nic.phy80211p RadioChannel ETV
vector 345 Scenario.manager posx ETV
vector 346 Scenario.manager posy ETV
vector 347 Scenario.manager speed ETV
vector 348 Scenario.manager acceleration ETV
vector 349 Scenario.manager co2emission ETV
76	177002 11244 20343 1524035 11.3 51.5 403 0.973 9.4447724592668 1303.147607344 6225.674141655
75	188246 12296 20343 1524035 11.3 51.5 403 -4.5 2.6 128.13350043075 1294.3201407794
74	200542 12377 19913 1524035 11.2 51.5 404 0.25235429966287 13.126937038422 4281.9208903685 49570.738069469
73	212919 11258 19483 1524035 11.1 51.5 405 28.937910963152 312.7 73908.993775184 15507382.751405
72	224177 9803 19483 1524035 11.1 51.5 405 26.6 176.6 42783.104078062 6329061.71108
vector 350 Scenario.node[50].nic.phy80211p RadioState ETV
vector 351 Scenario.node[50].nic.phy80211p RadioChannel ETV
vector 352 Scenario.manager posx ETV
vector 353 Scenario.manager posy ETV
vector 354 Scenario.manager speed ETV
vector 355 Scenario.node[51].nic.phy80211p RadioState ETV
vector 356 Scenario.node[51].nic.phy80211p RadioChannel ETV
vector 357 Scenario.manager posx ETV
vector 358 Scenario.manager posy ETV
vector 359 Scenario.manager acceleration ETV
vector 360 Scenario.manager co2emission ETV
vector 361 Scenario.manager speed ETV
vector 362 Scenario.manager acceleration ETV
vector 363 Scenario.manager co2emission ETV
vector 364 Scenario.node[52].nic.phy80211p RadioState ETV
vector 365 Scenario.node[52].nic.phy80211p RadioChannel ETV
vector 366 Scenario.manager posx ETV
vector 367 Scenario.manager posy ETV
vector 368 Scenario.manager speed ETV
vector 369 Scenario.manager acceleration ETV
vector 370 Scenario.manager co2emission ETV
vector 371 Scenario.node[53].nic.phy80211p RadioState ETV
vector 372 Scenario.node[53].nic.phy80211p RadioChannel ETV
vector 373 Scenario.manager posx ETV
vector 374 Scenario.manager posy ETV
vector 375 Scenario.manager speed ETV
vector 376 Scenario.manager acceleration ETV
vector 377 Scenario.manager co2emission ETV
118	235256 11283 59077 1788849 16.3 54.6 384 0.973 10.656935577921 1424.3318362182 7760.2588011967
117	246539 12056 59077 1788849 16.3 54.6 384 -4.5 2.6 143.8951369255 1584.0720874262
116	258595 12266 57899 1788849 16.2 54.6 385 0.2475197750791 14.682855974309 4210.3305860848 52052.792875007
115	270861 11041 56715 1788849 16.1 54.6 386 26.6 167.52305860848 28564.293164747 3073170.4655357
114	281902 9826 56715 1788849 16.1 54.6 386 176.6 323.4 94737.578579479 24928488.75104
20	291728 14373 508 1806816 2.3 54.8 526 0.973 10.456996973111 1812.6451359997 9556.4749156274
19	306101 15789 508 1806816 2.3 54.8 526 -4.5 2.6 128.3938745897 2045.5498163506
18	321890 15849 460 1806816 2.2 54.8 527 0 14.305963321559 5774.978445483 72388.684938894
17	337739 13381 412 1806816 2.1 54.8 528 26.6 323.4 91038.102386682 24112485.932436
16	351120 13632 412 1806816 2.1 54.8 528 176.6 321.5378445483 113372.47840995 25668259.311334
vector 378 Scenario.node[54].nic.phy80211p RadioState ETV
vector 379 Scenario.node[54].nic.phy80211p RadioChannel ETV
vector 380 Scenario.manager posx ETV
vector 381 Scenario.manager posy ETV
vector 382 Scenario.manager speed ETV
vector 383 Scenario.node[55].nic.phy80211p RadioState ETV
vector 384 Scenario.node[55].nic.phy80211p RadioChannel ETV
vector 385 Scenario.manager posx ETV
vector 386 Scenario.manager posy ETV
vector 387 Scenario.manager acceleration ETV
vector 388 Scenario.manager co2emission ETV
vector 389 Scenario.manager speed ETV
vector 390 Scenario.manager acceleration ETV
vector 391 Scenario.manager co2emission ETV
vector 392 Scenario.node[56].nic.phy80211p RadioState ETV
vector 393 Scenario.node[56].nic.phy80211p RadioChannel ETV
vector 394 Scenario.manager posx ETV
vector 395 Scenario.manager posy ETV
vector 396 Scenario.manager speed ETV
vector 397 Scenario.manager acceleration ETV
vector 398 Scenario.manager co2emission ETV
vector 399 Scenario.node[57].nic.phy80211p RadioState ETV
vector 400 Scenario.node[57].nic.phy80211p RadioChannel ETV
vector 401 Scenario.manager posx ETV
vector 402 Scenario.manager posy ETV
vector 403 Scenario.node[58].nic.phy80211p RadioState ETV
vector 404 Scenario.node[58].nic.phy80211p RadioChannel ETV
vector 405 Scenario.manager posx ETV
vector 406 Scenario.manager posy ETV
vector 407 Scenario.manager speed ETV
vector 408 Scenario.manager speed ETV
vector 409 Scenario.manager acceleration ETV
vector 410 Scenario.manager co2emission ETV
vector 411 Scenario.manager acceleration ETV
vector 412 Scenario.manager co2emission ETV
vector 413 Scenario.node[59].nic.phy80211p RadioState ETV
vector 414 Scenario.node[59].nic.phy80211p RadioChannel ETV
vector 415 Scenario.manager posx ETV
vector 416 Scenario.manager posy ETV
vector 417 Scenario.manager speed ETV
vector 418 Scenario.manager acceleration ETV
vector 419 Scenario.manager co2emission ETV
vector 420 Scenario.node[60].nic.phy80211p RadioState ETV
vector 421 Scenario.node[60].nic.phy80211p RadioChannel ETV
vector 422 Scenario.manager posx ETV
vector 423 Scenario.manager posy ETV
vector 424 Scenario.manager speed ETV
vector 425 Scenario.manager acceleration ETV
vector 426 Scenario.manager co2emission ETV
vector 427 Scenario.node[61].nic.phy80211p RadioState ETV
vector 428 Scenario.node[61].nic.phy80211p RadioChannel ETV
vector 429 Scenario.manager posx ETV
vector 430 Scenario.manager posy ETV
vector 431 Scenario.manager speed ETV
vector 432 Scenario.manager acceleration ETV
vector 433 Scenario.manager co2emission ETV
vector 434 Scenario.node[62].nic.phy80211p RadioState ETV
vector 435 Scenario.node[62].nic.phy80211p RadioChannel ETV
vector 436 Scenario.manager posx ETV
vector 437 Scenario.manager posy ETV
vector 438 Scenario.manager speed ETV
vector 439 Scenario.manager acceleration ETV
vector 440 Scenario.manager co2emission ETV
62	367623 15292 9506 2656980 8.3 63.3 551 0.973 10.568910338264 2014.5208607663 11174.184837466
61	382915 16771 9506 2656980 8.3 63.3 551 -4.5 2.6 143.15645288137 2530.2444166802
60	399686 16947 9186 2656980 8.2 63.3 552 0.25645482385973 14.640976065842 5650.7837413852 67330.328198202
59	416633 14355 8864 2656980 8.1 63.3 553 23.4 169.32548311363 36490.529868814 3902613.5792503
58	430988 13980 8864 2656980 8.1 63.3 553 23.4 169.3219272085 33842.410389346 3468947.5143818
174	444968 11580 198401 2668914 24.3 63.4 392 0.973 9.7977214740851 1179.6550914512 5192.0224256032
173	456548 12778 198401 2668914 24.3 63.4 392 -4.5 2.5863824943387 127.59205187531 988.95142965643
172	469326 12595 195891 2668914 24.2 63.4 393 0.25899773472198 13.067048627952 4196.1743705309 49789.62106099
171	481921 12686 193383 2668914 24.1 63.4 394 37.3 319.36638509797 78888.78108203 19050580.502407
170	494607 8923 193383 2668914 24.1 63.4 394 173.4 176.6 68734.700302977 11991882.214049
vector 441 Scenario.node[63].nic.phy80211p RadioState ETV
vector 442 Scenario.node[63].nic.phy80211p RadioChannel ETV
vector 443 Scenario.manager posx ETV
vector 444 Scenario.manager posy ETV
vector 445 Scenario.manager speed ETV
vector 446 Scenario.manager acceleration ETV
vector 447 Scenario.manager co2emission ETV
13	503849 17227 164 2960964 1.3 66 648 0.973 9.884540049484 1673.8685731969 7799.6427027126
12	521076 18838 164 2960964 1.3 66 648 -4.5 2.5974803843768 41.256994791802 1995.8708425791
11	539914 18766 133 2960964 1.2 66 649 0 14.560843830217 4255.7165897184 49842.530104667
10	558680 16979 102 2960964 1.1 66 650 23.4 167.26165897184 58460.753506865 7947950.5913529
9	575659 15160 102 2960964 1.1 66 650 23.4 169.37156188492 36131.472699409 3541430.1370989
90	590819 15200 25377 3049627 12.3 66.8 546 0.973 9.5162379551226 1582.8051630865 6822.952251172
89	606019 17281 25377 3049627 12.3 66.8 546 -4.5 2.6 126.4609599637 1324.5853253792
88	623300 16898 24759 3049627 12.2 66.8 547 0.25949869816448 12.943998871734 5744.3391188865 66356.201504556
87	640198 15451 24141 3049627 12.1 66.8 548 23.4 319.35847286768 86008.673598596 20351572.999785
86	655649 13266 24141 3049627 12.1 66.8 548 173.4 316.7 107813.14247011 22264518.790279
vector 448 Scenario.node[64].nic.phy80211p RadioState ETV
vector 449 Scenario.node[64].nic.phy80211p RadioChannel ETV
vector 450 Scenario.manager posx ETV
vector 451 Scenario.manager posy ETV
vector 452 Scenario.manager speed ETV
vector 453 Scenario.manager acceleration ETV
vector 454 Scenario.manager co2emission ETV
vector 455 Scenario.node[65].nic.phy80211p RadioState ETV
vector 456 Scenario.node[65].nic.phy80211p RadioChannel ETV
vector 457 Scenario.manager posx ETV
vector 458 Scenario.manager posy ETV
vector 459 Scenario.manager speed ETV
vector 460 Scenario.manager acceleration ETV
vector 461 Scenario.manager co2emission ETV
vector 462 Scenario.node[66].nic.phy80211p RadioState ETV
vector 463 Scenario.node[66].nic.phy80211p RadioChannel ETV
vector 464 Scenario.manager posx ETV
vector 465 Scenario.manager posy ETV
vector 466 Scenario.manager speed ETV
vector 467 Scenario.manager acceleration ETV
vector 468 Scenario.manager co2emission ETV
vector 469 Scenario.node[67].nic.phy80211p RadioState ETV
vector 470 Scenario.node[67].nic.phy80211p RadioChannel ETV
vector 471 Scenario.manager posx ETV
vector 472 Scenario.manager posy ETV
vector 473 Scenario.manager speed ETV
vector 474 Scenario.manager acceleration ETV
vector 475 Scenario.manager co2emission ETV
vector 476 Scenario.node[68].nic.phy80211p RadioState ETV
vector 477 Scenario.node[68].nic.phy80211p RadioChannel ETV
vector 478 Scenario.manager posx ETV
vector 479 Scenario.manager posy ETV
vector 480 Scenario.manager speed ETV
vector 481 Scenario.manager acceleration ETV
vector 482 Scenario.manager co2emission ETV
300	670510 8435 1012115 3703193 44.3 72.4 282 0.973 8.6245346281465 856.12218596588 3739.9879115128
299	678945 9400 1012115 3703193 44.3 72.4 282 -4.5 2.5714564054506 119.1790711551 740.51095330431
298	688345 9260 1006060 3703193 44.2 72.4 283 0.25360012983461 12.211075965963 2815.5718118569 30875.885047704
297	697605 8039 999989 3703193 44.1 72.4 284 187.3 326.6 80797.458468495 23747794.884744
296	705644 7707 999989 3703193 44.1 72.4 284 23.4 167.51718118569 15408.217916417 1399793.6537196
139	713351 15874 99011 3830053 19.3 73.4 542 0.973 9.953324133919 1701.1076663587 7901.7992955869
138	729225 17608 99011 3830053 19.3 73.4 542 -4.5 2.5721412788145 127.72741669649 1750.5536833485
137	746833 17512 97358 3830053 19.2 73.4 543 0.25764415806811 13.036903440541 5650.166683179 64496.204098759
136	764345 15116 95701 3830053 19.1 73.4 544 176.6 323.4 137091.33700206 36555931.457218
135	779461 14919 95701 3830053 19.1 73.4 544 176.6 323.4 136646.15456628 36387656.515239