file 101339646 1781456516                                       
version 3
run Scenario2-0-20260614-16:58:31-5756
attr configname Scenario2
attr datetime 20260614-16:58:31
attr datetimef 20260614-165831
attr experiment Scenario2
attr inifile omnetpp.ini
attr iterationvars ""
attr iterationvarsd ""
attr iterationvarsf ""
attr measurement ""
attr network org.car2x.veins.nodes.Scenario
attr processid 5756
attr repetition 0
attr replication #0
attr resultdir results
attr runnumber 0
attr seedset 0
config image-path ../../../veins/images
config description "Two-Ray Ground (Radio bouncing off asphalt)"
config *.annotations.draw false
config *.**.nic.phy80211p.decider "xmldoc(\"config_2.xml\")"
config *.**.nic.phy80211p.analogueModels "xmldoc(\"config_2.xml\")"
config network org.car2x.veins.nodes.Scenario
config sim-time-limit 100s
config *.playgroundSizeX 600m
config *.playgroundSizeY 600m
config *.playgroundSizeZ 50m
config *.manager.updateInterval 0.1s
config *.manager.host "\"localhost\""
config *.manager.port 9999
config *.manager.autoShutdown true
config *.manager.launchConfig "xmldoc(\"simulation.launchd.xml\")"
config *.node[*].veinsmobility.x 0
config *.node[*].veinsmobility.y 0
config *.node[*].veinsmobility.z 1.895
config *.node[*].applType "\"TraCIDemo11p\""
config *.node[*].appl.headerLength "80 bit"
config *.node[*].appl.sendBeacons true
config *.node[*].appl.dataOnSch false
config *.node[*].appl.beaconInterval 0.1s
config *.connectionManager.sendDirect true
config *.connectionManager.maxInterfDist 500m
config *.connectionManager.drawMaxIntfDist false
config *.**.nic.mac1609_4.useServiceChannel false
config *.**.nic.mac1609_4.txPower 20mW
config *.**.nic.mac1609_4.bitrate 6Mbps
config *.**.nic.phy80211p.minPowerLevel -110dBm
config *.**.nic.phy80211p.useNoiseFloor true
config *.**.nic.phy80211p.noiseFloor -98dBm
config *.**.nic.phy80211p.usePropagationDelay true

vector 0 Scenario.node[0].nic.phy80211p RadioState ETV
vector 1 Scenario.node[0].nic.phy80211p RadioChannel ETV
vector 2 Scenario.manager posx ETV
vector 3 Scenario.manager posy ETV
vector 4 Scenario.manager speed ETV
vector 5 Scenario.manager acceleration ETV
vector 6 Scenario.manager co2emission ETV
vector 7 Scenario.node[1].nic.phy80211p RadioState ETV
vector 8 Scenario.node[1].nic.phy80211p RadioChannel ETV
vector 9 Scenario.manager posx ETV
vector 10 Scenario.manager posy ETV
vector 11 Scenario.node[0].nic.phy80211p pathlosses ETV
vector 12 Scenario.node[1].nic.phy80211p pathlosses ETV
vector 13 Scenario.manager speed ETV
vector 14 Scenario.manager acceleration ETV
vector 15 Scenario.manager co2emission ETV
vector 16 Scenario.node[2].nic.phy80211p RadioState ETV
vector 17 Scenario.node[2].nic.phy80211p RadioChannel ETV
vector 18 Scenario.manager posx ETV
vector 19 Scenario.manager posy ETV
vector 20 Scenario.node[2].nic.phy80211p pathlosses ETV
vector 21 Scenario.manager speed ETV
vector 22 Scenario.manager acceleration ETV
vector 23 Scenario.manager co2emission ETV
vector 24 Scenario.node[3].nic.phy80211p RadioState ETV
vector 25 Scenario.node[3].nic.phy80211p RadioChannel ETV
vector 26 Scenario.manager posx ETV
vector 27 Scenario.manager posy ETV
vector 28 Scenario.node[3].nic.phy80211p pathlosses ETV
vector 29 Scenario.manager speed ETV
vector 30 Scenario.manager acceleration ETV
vector 31 Scenario.manager co2emission ETV
vector 32 Scenario.node[4].nic.phy80211p RadioState ETV
vector 33 Scenario.node[4].nic.phy80211p RadioChannel ETV
vector 34 Scenario.manager posx ETV
vector 35 Scenario.manager posy ETV
vector 36 Scenario.node[4].nic.phy80211p pathlosses ETV
vector 37 Scenario.manager speed ETV
vector 38 Scenario.manager acceleration ETV
vector 39 Scenario.manager co2emission ETV
vector 40 Scenario.node[5].nic.phy80211p RadioState ETV
vector 41 Scenario.node[5].nic.phy80211p RadioChannel ETV
vector 42 Scenario.manager posx ETV
vector 43 Scenario.manager posy ETV
vector 44 Scenario.node[5].nic.phy80211p pathlosses ETV
vector 45 Scenario.manager speed ETV
vector 46 Scenario.manager acceleration ETV
vector 47 Scenario.manager co2emission ETV
vector 48 Scenario.node[6].nic.phy80211p RadioState ETV
vector 49 Scenario.node[6].nic.phy80211p RadioChannel ETV
vector 50 Scenario.manager posx ETV
vector 51 Scenario.manager posy ETV
vector 52 Scenario.node[6].nic.phy80211p pathlosses ETV
vector 53 Scenario.manager speed ETV
vector 54 Scenario.manager acceleration ETV
vector 55 Scenario.manager co2emission ETV
vector 56 Scenario.node[7].nic.phy80211p RadioState ETV
vector 57 Scenario.node[7].nic.phy80211p RadioChannel ETV
vector 58 Scenario.manager posx ETV
vector 59 Scenario.manager posy ETV
vector 60 Scenario.node[7].nic.phy80211p pathlosses ETV
vector 61 Scenario.manager speed ETV
vector 62 Scenario.manager acceleration ETV
vector 63 Scenario.manager co2emission ETV
vector 64 Scenario.node[8].nic.phy80211p RadioState ETV
vector 65 Scenario.node[8].nic.phy80211p RadioChannel ETV
vector 66 Scenario.manager posx ETV
vector 67 Scenario.manager posy ETV
vector 68 Scenario.node[8].nic.phy80211p pathlosses ETV
vector 69 Scenario.manager speed ETV
vector 70 Scenario.manager acceleration ETV
vector 71 Scenario.manager co2emission ETV
vector 72 Scenario.node[9].nic.phy80211p RadioState ETV
vector 73 Scenario.node[9].nic.phy80211p RadioChannel ETV
vector 74 Scenario.manager posx ETV
vector 75 Scenario.manager posy ETV
vector 76 Scenario.node[9].nic.phy80211p pathlosses ETV
vector 77 Scenario.manager speed ETV
vector 78 Scenario.manager acceleration ETV
vector 79 Scenario.manager co2emission ETV
vector 80 Scenario.node[10].nic.phy80211p RadioState ETV
vector 81 Scenario.node[10].nic.phy80211p RadioChannel ETV
vector 82 Scenario.manager posx ETV
vector 83 Scenario.manager posy ETV
vector 84 Scenario.node[10].nic.phy80211p pathlosses ETV
vector 85 Scenario.manager speed ETV
vector 86 Scenario.manager acceleration ETV
vector 87 Scenario.manager co2emission ETV
vector 88 Scenario.node[11].nic.phy80211p RadioState ETV
vector 89 Scenario.node[11].nic.phy80211p RadioChannel ETV
vector 90 Scenario.manager posx ETV
vector 91 Scenario.manager posy ETV
vector 92 Scenario.node[11].nic.phy80211p pathlosses ETV
vector 93 Scenario.manager speed ETV
vector 94 Scenario.manager acceleration ETV
vector 95 Scenario.manager co2emission ETV
vector 96 Scenario.node[12].nic.phy80211p RadioState ETV
vector 97 Scenario.node[12].nic.phy80211p RadioChannel ETV
vector 98 Scenario.manager posx ETV
vector 99 Scenario.manager posy ETV
vector 100 Scenario.node[12].nic.phy80211p pathlosses ETV
vector 101 Scenario.manager speed ETV
vector 102 Scenario.manager acceleration ETV
vector 103 Scenario.manager co2emission ETV
vector 104 Scenario.node[13].nic.phy80211p RadioState ETV
vector 105 Scenario.node[13].nic.phy80211p RadioChannel ETV
vector 106 Scenario.manager posx ETV
vector 107 Scenario.manager posy ETV
vector 108 Scenario.node[13].nic.phy80211p pathlosses ETV
vector 109 Scenario.manager speed ETV
vector 110 Scenario.manager acceleration ETV
vector 111 Scenario.manager co2emission ETV
vector 112 Scenario.node[14].nic.phy80211p RadioState ETV
vector 113 Scenario.node[14].nic.phy80211p RadioChannel ETV
vector 114 Scenario.manager posx ETV
vector 115 Scenario.manager posy ETV
vector 116 Scenario.node[14].nic.phy80211p pathlosses ETV
vector 117 Scenario.manager speed ETV
vector 118 Scenario.manager acceleration ETV
vector 119 Scenario.manager co2emission ETV
vector 120 Scenario.node[15].nic.phy80211p RadioState ETV
vector 121 Scenario.node[15].nic.phy80211p RadioChannel ETV
vector 122 Scenario.manager posx ETV
vector 123 Scenario.manager posy ETV
vector 124 Scenario.node[15].nic.phy80211p pathlosses ETV
vector 125 Scenario.manager speed ETV
vector 126 Scenario.manager acceleration ETV
vector 127 Scenario.manager co2emission ETV
vector 128 Scenario.node[16].nic.phy80211p RadioState ETV
vector 129 Scenario.node[16].nic.phy80211p RadioChannel ETV
vector 130 Scenario.manager posx ETV
vector 131 Scenario.manager posy ETV
vector 132 Scenario.node[16].nic.phy80211p pathlosses ETV
vector 133 Scenario.manager speed ETV
vector 134 Scenario.manager acceleration ETV
vector 135 Scenario.manager co2emission ETV
vector 136 Scenario.node[17].nic.phy80211p RadioState ETV
vector 137 Scenario.node[17].nic.phy80211p RadioChannel ETV
vector 138 Scenario.manager posx ETV
vector 139 Scenario.manager posy ETV
vector 140 Scenario.node[17].nic.phy80211p pathlosses ETV
vector 141 Scenario.manager speed ETV
vector 142 Scenario.manager acceleration ETV
vector 143 Scenario.manager co2emission ETV
vector 144 Scenario.node[18].nic.phy80211p RadioState ETV
vector 145 Scenario.node[18].nic.phy80211p RadioChannel ETV
vector 146 Scenario.manager posx ETV
vector 147 Scenario.manager posy ETV
vector 148 Scenario.node[18].nic.phy80211p pathlosses ETV
vector 149 Scenario.manager speed ETV
vector 150 Scenario.manager acceleration ETV
vector 151 Scenario.manager co2emission ETV
vector 152 Scenario.node[19].nic.phy80211p RadioState ETV
vector 153 Scenario.node[19].nic.phy80211p RadioChannel ETV
vector 154 Scenario.manager posx ETV
vector 155 Scenario.manager posy ETV
vector 156 Scenario.node[19].nic.phy80211p pathlosses ETV
vector 157 Scenario.manager speed ETV
vector 158 Scenario.manager acceleration ETV
vector 159 Scenario.manager co2emission ETV
vector 160 Scenario.node[20].nic.phy80211p RadioState ETV
vector 161 Scenario.node[20].nic.phy80211p RadioChannel ETV
vector 162 Scenario.manager posx ETV
vector 163 Scenario.manager posy ETV
vector 164 Scenario.node[20].nic.phy80211p pathlosses ETV
vector 165 Scenario.manager speed ETV
vector 166 Scenario.manager acceleration ETV
vector 167 Scenario.manager co2emission ETV
vector 168 Scenario.node[21].nic.phy80211p RadioState ETV
vector 169 Scenario.node[21].nic.phy80211p RadioChannel ETV
vector 170 Scenario.manager posx ETV
vector 171 Scenario.manager posy ETV
vector 172 Scenario.node[21].nic.phy80211p pathlosses ETV
vector 173 Scenario.manager speed ETV
vector 174 Scenario.manager acceleration ETV
vector 175 Scenario.manager co2emission ETV
vector 176 Scenario.node[22].nic.phy80211p RadioState ETV
vector 177 Scenario.node[22].nic.phy80211p RadioChannel ETV
vector 178 Scenario.manager posx ETV
vector 179 Scenario.manager posy ETV
vector 180 Scenario.node[22].nic.phy80211p pathlosses ETV
vector 181 Scenario.manager speed ETV
vector 182 Scenario.manager acceleration ETV
vector 183 Scenario.manager co2emission ETV
vector 184 Scenario.node[23].nic.phy80211p RadioState ETV
vector 185 Scenario.node[23].nic.phy80211p RadioChannel ETV
vector 186 Scenario.manager posx ETV
vector 187 Scenario.manager posy ETV
vector 188 Scenario.node[23].nic.phy80211p pathlosses ETV
vector 189 Scenario.manager speed ETV
vector 190 Scenario.manager acceleration ETV
vector 191 Scenario.manager co2emission ETV
vector 192 Scenario.node[24].nic.phy80211p RadioState ETV
vector 193 Scenario.node[24].nic.phy80211p RadioChannel ETV
vector 194 Scenario.manager posx ETV
vector 195 Scenario.manager posy ETV
vector 196 Scenario.node[24].nic.phy80211p pathlosses ETV
vector 197 Scenario.manager speed ETV
vector 198 Scenario.manager acceleration ETV
vector 199 Scenario.manager co2emission ETV
vector 200 Scenario.node[25].nic.phy80211p RadioState ETV
vector 201 Scenario.node[25].nic.phy80211p RadioChannel ETV
vector 202 Scenario.manager posx ETV
vector 203 Scenario.manager posy ETV
vector 204 Scenario.node[25].nic.phy80211p pathlosses ETV
vector 205 Scenario.manager speed ETV
vector 206 Scenario.manager acceleration ETV
vector 207 Scenario.manager co2emission ETV
vector 208 Scenario.node[26].nic.phy80211p RadioState ETV
vector 209 Scenario.node[26].nic.phy80211p RadioChannel ETV
vector 210 Scenario.manager posx ETV
vector 211 Scenario.manager posy ETV
vector 212 Scenario.node[26].nic.phy80211p pathlosses ETV
108	11751 108730 49894 385056 13.11151420518 26.198843024792 2496 -88.194970648516 -47.882017127129 -161248.9420341 10653503.085991
111	120481 3869 52304 380716 13.3 26.1 129 0.973 10.405123236858 470.80194457847 2395.6992644543
110	124350 4171 52304 380716 13.3 26.1 129 -1.1087711269502 2.5933619049663 133.75030784636 298.53172683127
109	128521 4093 51085 380716 13.2 26.1 130 0.25331873658695 13.697302625012 1333.2553055902 16072.609606924
107	132614 4108 49866 380716 13.1 26.1 131 187.3 320.62553055902 31382.019746885 7752918.9641213
106	136722 2690 49866 380716 13.1 26.1 131 23.4 23.4 3065.4 71730.36
vector 213 Scenario.manager speed ETV
vector 214 Scenario.manager acceleration ETV
vector 215 Scenario.manager co2emission ETV
vector 216 Scenario.node[27].nic.phy80211p RadioState ETV
vector 217 Scenario.node[27].nic.phy80211p RadioChannel ETV
vector 218 Scenario.manager posx ETV
vector 219 Scenario.manager posy ETV
vector 220 Scenario.node[27].nic.phy80211p pathlosses ETV
vector 221 Scenario.node[28].nic.phy80211p RadioState ETV
vector 222 Scenario.node[28].nic.phy80211p RadioChannel ETV
vector 223 Scenario.manager posx ETV
vector 224 Scenario.manager posy ETV
vector 225 Scenario.manager speed ETV
vector 226 Scenario.node[28].nic.phy80211p pathlosses ETV
vector 227 Scenario.manager acceleration ETV
vector 228 Scenario.manager co2emission ETV
vector 229 Scenario.manager speed ETV
vector 230 Scenario.manager acceleration ETV
vector 231 Scenario.manager co2emission ETV
vector 232 Scenario.node[29].nic.phy80211p RadioState ETV
vector 233 Scenario.node[29].nic.phy80211p RadioChannel ETV
vector 234 Scenario.manager posx ETV
vector 235 Scenario.manager posy ETV
vector 236 Scenario.node[29].nic.phy80211p pathlosses ETV
vector 237 Scenario.manager speed ETV
vector 238 Scenario.manager acceleration ETV
vector 239 Scenario.manager co2emission ETV
vector 240 Scenario.node[30].nic.phy80211p RadioState ETV
vector 241 Scenario.node[30].nic.phy80211p RadioChannel ETV
vector 242 Scenario.manager posx ETV
vector 243 Scenario.manager posy ETV
vector 244 Scenario.node[30].nic.phy80211p pathlosses ETV
vector 245 Scenario.manager speed ETV
vector 246 Scenario.manager acceleration ETV
vector 247 Scenario.manager co2emission ETV
vector 248 Scenario.node[31].nic.phy80211p RadioState ETV
vector 249 Scenario.node[31].nic.phy80211p RadioChannel ETV
vector 250 Scenario.manager posx ETV
vector 251 Scenario.manager posy ETV
vector 252 Scenario.node[31].nic.phy80211p pathlosses ETV
vector 253 Scenario.manager speed ETV
vector 254 Scenario.manager acceleration ETV
vector 255 Scenario.manager co2emission ETV
52	141424 206505 6164 696449 6.147777961785 32.698848183298 4862 -88.198398678803 -47.86865539255 -310495.54334702 20414085.564461
55	347929 7356 6784 690761 6.3 32.6 264 0.973 9.851755455354 862.24724363963 4138.4896921771
54	355285 8056 6784 690761 6.3 32.6 264 -4.5 2.5970629891846 128.06320315312 757.81104692619
53	363341 7990 6468 690761 6.2 32.6 265 0.25799588305899 13.131348027791 2778.8438581848 32346.517109217
51	371331 6889 6152 690761 6.1 32.6 266 176.6 316.7 58772.131184764 13727347.720774
50	378220 6487 6152 690761 6.1 32.6 266 26.6 166.55438581847 14786.89673331 1309801.203752
vector 256 Scenario.node[32].nic.phy80211p RadioState ETV
vector 257 Scenario.node[32].nic.phy80211p RadioChannel ETV
vector 258 Scenario.manager posx ETV
vector 259 Scenario.manager posy ETV
vector 260 Scenario.node[32].nic.phy80211p pathlosses ETV
vector 261 Scenario.manager speed ETV
vector 262 Scenario.manager acceleration ETV
vector 263 Scenario.manager co2emission ETV
vector 264 Scenario.node[33].nic.phy80211p RadioState ETV
vector 265 Scenario.node[33].nic.phy80211p RadioChannel ETV
vector 266 Scenario.manager posx ETV
vector 267 Scenario.manager posy ETV
vector 268 Scenario.node[34].nic.phy80211p RadioState ETV
vector 269 Scenario.node[34].nic.phy80211p RadioChannel ETV
vector 270 Scenario.manager posx ETV
vector 271 Scenario.manager posy ETV
vector 272 Scenario.node[33].nic.phy80211p pathlosses ETV
vector 273 Scenario.node[34].nic.phy80211p pathlosses ETV
vector 274 Scenario.node[35].nic.phy80211p RadioState ETV
vector 275 Scenario.node[35].nic.phy80211p RadioChannel ETV
vector 276 Scenario.manager posx ETV
vector 277 Scenario.manager posy ETV
vector 278 Scenario.manager speed ETV
vector 279 Scenario.manager speed ETV
vector 280 Scenario.node[35].nic.phy80211p pathlosses ETV
vector 281 Scenario.manager acceleration ETV
vector 282 Scenario.manager co2emission ETV
vector 283 Scenario.manager acceleration ETV
vector 284 Scenario.manager co2emission ETV
vector 285 Scenario.manager speed ETV
vector 286 Scenario.node[36].nic.phy80211p RadioState ETV
vector 287 Scenario.node[36].nic.phy80211p RadioChannel ETV
vector 288 Scenario.manager posx ETV
vector 289 Scenario.manager posy ETV
vector 290 Scenario.manager acceleration ETV
vector 291 Scenario.manager co2emission ETV
vector 292 Scenario.node[36].nic.phy80211p pathlosses ETV
vector 293 Scenario.manager speed ETV
vector 294 Scenario.manager acceleration ETV
vector 295 Scenario.manager co2emission ETV
60	386592 275468 9320 1037259 7.147774138206 37.898847731788 6467 -88.199564830961 -47.86102244033 -397174.09799317 25179024.40658
63	662060 8437 10130 1029963 7.3 37.8 306 0.973 7.1991241121676 774.61922285036 2778.0299634674
62	670497 9461 10130 1029963 7.3 37.8 306 -4.5 2.5953789065162 103.21574572686 555.82425317701
61	679958 9229 9721 1029963 7.2 37.8 307 0.2516025879411 10.616659496242 2796.995047105 27336.417931756
59	689187 7997 9312 1029963 7.1 37.8 308 37.3 176.6 41671.171877747 6433188.2576732
58	697184 7823 9312 1029963 7.1 37.8 308 173.4 317.1995047105 63372.804804679 13667326.299804
vector 296 Scenario.node[37].nic.phy80211p RadioState ETV
vector 297 Scenario.node[37].nic.phy80211p RadioChannel ETV
vector 298 Scenario.manager posx ETV
vector 299 Scenario.manager posy ETV
vector 300 Scenario.node[37].nic.phy80211p pathlosses ETV
vector 301 Scenario.manager speed ETV
vector 302 Scenario.manager acceleration ETV
vector 303 Scenario.manager co2emission ETV
vector 304 Scenario.node[38].nic.phy80211p RadioState ETV
vector 305 Scenario.node[38].nic.phy80211p RadioChannel ETV
vector 306 Scenario.manager posx ETV
vector 307 Scenario.manager posy ETV
vector 308 Scenario.node[38].nic.phy80211p pathlosses ETV
vector 309 Scenario.manager speed ETV
vector 310 Scenario.manager acceleration ETV
vector 311 Scenario.manager co2emission ETV
vector 312 Scenario.node[39].nic.phy80211p RadioState ETV
vector 313 Scenario.node[39].nic.phy80211p RadioChannel ETV
vector 314 Scenario.manager posx ETV
vector 315 Scenario.manager posy ETV
vector 316 Scenario.node[39].nic.phy80211p pathlosses ETV
vector 317 Scenario.manager speed ETV
vector 318 Scenario.manager acceleration ETV
vector 319 Scenario.manager co2emission ETV
vector 320 Scenario.node[40].nic.phy80211p RadioState ETV
vector 321 Scenario.node[40].nic.phy80211p RadioChannel ETV
vector 322 Scenario.manager posx ETV
vector 323 Scenario.manager posy ETV
vector 324 Scenario.node[40].nic.phy80211p pathlosses ETV
vector 325 Scenario.manager speed ETV
vector 326 Scenario.manager acceleration ETV
vector 327 Scenario.manager co2emission ETV
vector 328 Scenario.node[41].nic.phy80211p RadioState ETV
vector 329 Scenario.node[41].nic.phy80211p RadioChannel ETV
vector 330 Scenario.manager posx ETV
vector 331 Scenario.manager posy ETV
vector 332 Scenario.node[41].nic.phy80211p pathlosses ETV
vector 333 Scenario.manager speed ETV
vector 334 Scenario.manager acceleration ETV
vector 335 Scenario.manager co2emission ETV
vector 336 Scenario.node[42].nic.phy80211p RadioState ETV
vector 337 Scenario.node[42].nic.phy80211p RadioChannel ETV
vector 338 Scenario.manager posx ETV
vector 339 Scenario.manager posy ETV
vector 340 Scenario.node[42].nic.phy80211p pathlosses ETV
vector 341 Scenario.manager speed ETV
vector 342 Scenario.manager acceleration ETV
vector 343 Scenario.manager co2emission ETV
vector 344 Scenario.node[43].nic.phy80211p RadioState ETV
vector 345 Scenario.node[43].nic.phy80211p RadioChannel ETV
vector 346 Scenario.manager posx ETV
vector 347 Scenario.manager posy ETV
vector 348 Scenario.node[43].nic.phy80211p pathlosses ETV
vector 349 Scenario.manager speed ETV
vector 350 Scenario.manager acceleration ETV
vector 351 Scenario.manager co2emission ETV
vector 352 Scenario.node[44].nic.phy80211p RadioState ETV
vector 353 Scenario.node[44].nic.phy80211p RadioChannel ETV
vector 354 Scenario.manager posx ETV
vector 355 Scenario.manager posy ETV
vector 356 Scenario.node[44].nic.phy80211p pathlosses ETV
vector 357 Scenario.manager speed ETV
vector 358 Scenario.manager acceleration ETV
vector 359 Scenario.manager co2emission ETV
11	708023 434605 108 1866212 1.147769469024 47.098847665394 10122 -88.198496633938 -47.86102244033 -625070.10876676 39365710.976565
6	1142628 12406 22 1855685 0.3 47 468 0.973 11.57075190722 1740.7350560634 9749.4608919969
5	1155034 13526 22 1855685 0.3 47 468 -4.5 2.6 152.36708273484 1709.8764066548
4	1168560 13637 12 1855685 0.2 47 469 0.25446562165231 15.505396197811 5707.1860969598 77356.329614464
3	1182197 12575 2 1855685 0.1 47 470 37.3 323.4 107938.42141173 29271678.5083
2	1194772 10188 2 1855685 0.1 47 470 26.6 173.4 55978.929040727 8649384.9910638
vector 360 Scenario.node[45].nic.phy80211p RadioState ETV
vector 361 Scenario.node[45].nic.phy80211p RadioChannel ETV
vector 362 Scenario.manager posx ETV
vector 363 Scenario.manager posy ETV
vector 364 Scenario.node[46].nic.phy80211p RadioState ETV
vector 365 Scenario.node[46].nic.phy80211p RadioChannel ETV
vector 366 Scenario.manager posx ETV
vector 367 Scenario.manager posy ETV
vector 368 Scenario.node[46].nic.phy80211p pathlosses ETV
vector 369 Scenario.node[45].nic.phy80211p pathlosses ETV
vector 370 Scenario.manager speed ETV
vector 371 Scenario.manager speed ETV
vector 372 Scenario.manager acceleration ETV
vector 373 Scenario.manager co2emission ETV
vector 374 Scenario.manager acceleration ETV
vector 375 Scenario.manager co2emission ETV
vector 376 Scenario.node[47].nic.phy80211p RadioState ETV
vector 377 Scenario.node[47].nic.phy80211p RadioChannel ETV
vector 378 Scenario.manager posx ETV
vector 379 Scenario.manager posy ETV
vector 380 Scenario.node[47].nic.phy80211p pathlosses ETV
vector 381 Scenario.manager speed ETV
vector 382 Scenario.manager acceleration ETV
vector 383 Scenario.manager co2emission ETV
vector 384 Scenario.node[48].nic.phy80211p RadioState ETV
vector 385 Scenario.node[48].nic.phy80211p RadioChannel ETV
vector 386 Scenario.manager posx ETV
vector 387 Scenario.manager posy ETV
vector 388 Scenario.node[48].nic.phy80211p pathlosses ETV
vector 389 Scenario.manager speed ETV
vector 390 Scenario.manager acceleration ETV
vector 391 Scenario.manager co2emission ETV
vector 392 Scenario.node[49].nic.phy80211p RadioState ETV
vector 393 Scenario.node[49].nic.phy80211p RadioChannel ETV
vector 394 Scenario.manager posx ETV
vector 395 Scenario.manager posy ETV
vector 396 Scenario.node[49].nic.phy80211p pathlosses ETV
vector 397 Scenario.manager speed ETV
vector 398 Scenario.manager acceleration ETV
vector 399 Scenario.manager co2emission ETV
84	1206845 498355 31253 2405266 11.147777937772 51.59884227294 11536 -88.199462908567 -47.860059962141 -726719.83368821 47191457.036148
87	1705200 11340 32682 2392649 11.3 51.5 403 0.973 9.4447724592668 1303.147607344 6225.674141655
86	1716540 12392 32682 2392649 11.3 51.5 403 -4.5 2.6 128.13350043075 1294.3201407794
85	1728932 12473 31922 2392649 11.2 51.5 404 0.25235429966287 13.126937038422 4281.9208903685 49570.738069469
83	1741405 11354 31162 2392649 11.1 51.5 405 28.937910963152 312.7 73908.993775184 15507382.751405
82	1752759 9899 31162 2392649 11.1 51.5 405 26.6 176.6 42783.104078062 6329061.71108
vector 400 Scenario.node[50].nic.phy80211p RadioState ETV
vector 401 Scenario.node[50].nic.phy80211p RadioChannel ETV
vector 402 Scenario.manager posx ETV
vector 403 Scenario.manager posy ETV
vector 404 Scenario.node[50].nic.phy80211p pathlosses ETV
vector 405 Scenario.manager speed ETV
vector 406 Scenario.node[51].nic.phy80211p RadioState ETV
vector 407 Scenario.node[51].nic.phy80211p RadioChannel ETV
vector 408 Scenario.manager posx ETV
vector 409 Scenario.manager posy ETV
vector 410 Scenario.manager acceleration ETV
vector 411 Scenario.manager co2emission ETV
vector 412 Scenario.node[51].nic.phy80211p pathlosses ETV
vector 413 Scenario.manager speed ETV
vector 414 Scenario.manager acceleration ETV
vector 415 Scenario.manager co2emission ETV
vector 416 Scenario.node[52].nic.phy80211p RadioState ETV
vector 417 Scenario.node[52].nic.phy80211p RadioChannel ETV
vector 418 Scenario.manager posx ETV
vector 419 Scenario.manager posy ETV
vector 420 Scenario.node[52].nic.phy80211p pathlosses ETV
vector 421 Scenario.manager speed ETV
vector 422 Scenario.manager acceleration ETV
vector 423 Scenario.manager co2emission ETV
vector 424 Scenario.node[53].nic.phy80211p RadioState ETV
vector 425 Scenario.node[53].nic.phy80211p RadioChannel ETV
vector 426 Scenario.manager posx ETV
vector 427 Scenario.manager posy ETV
vector 428 Scenario.node[53].nic.phy80211p pathlosses ETV
vector 429 Scenario.manager speed ETV
vector 430 Scenario.manager acceleration ETV
vector 431 Scenario.manager co2emission ETV
132	1764166 546617 91878 2826490 16.101863188404 54.698848305204 12328 -88.194117062197 -47.863448945315 -778595.70315593 50446874.971026
135	2310783 11379 95438 2812212 16.3 54.6 384 0.973 10.656935577921 1424.3318362182 7760.2588011967
134	2322162 12152 95438 2812212 16.3 54.6 384 -4.5 2.6 143.8951369255 1584.0720874262
133	2334314 12362 93652 2812212 16.2 54.6 385 0.2475197750791 14.682855974309 4210.3305860848 52052.792875007
131	2346676 11137 91866 2812212 16.1 54.6 386 26.6 167.52305860848 28564.293164747 3073170.4655357
130	2357813 9922 91866 2812212 16.1 54.6 386 176.6 323.4 94737.578579479 24928488.75104
20	2367735 586759 420 2854215 2.147775727572 54.898264518763 13596 -88.198496633938 -47.864931665911 -856848.22320083 55487827.802625
23	2954494 14483 540 2840735 2.3 54.8 526 0.973 10.456996973111 1812.6451359997 9556.4749156274
22	2968977 15899 540 2840735 2.3 54.8 526 -4.5 2.6 128.3938745897 2045.5498163506
21	2984876 15959 476 2840735 2.2 54.8 527 0 14.305963321559 5774.978445483 72388.684938894
19	3000835 13491 412 2840735 2.1 54.8 528 26.6 323.4 91038.102386682 24112485.932436
18	3014326 13742 412 2840735 2.1 54.8 528 176.6 321.5378445483 113372.47840995 25668259.311334
vector 432 Scenario.node[54].nic.phy80211p RadioState ETV
vector 433 Scenario.node[54].nic.phy80211p RadioChannel ETV
vector 434 Scenario.manager posx ETV
vector 435 Scenario.manager posy ETV
vector 436 Scenario.node[54].nic.phy80211p pathlosses ETV
vector 437 Scenario.manager speed ETV
vector 438 Scenario.node[55].nic.phy80211p RadioState ETV
vector 439 Scenario.node[55].nic.phy80211p RadioChannel ETV
vector 440 Scenario.manager posx ETV
vector 441 Scenario.manager posy ETV
vector 442 Scenario.manager acceleration ETV
vector 443 Scenario.manager co2emission ETV
vector 444 Scenario.node[55].nic.phy80211p pathlosses ETV
vector 445 Scenario.manager speed ETV
vector 446 Scenario.manager acceleration ETV
vector 447 Scenario.manager co2emission ETV
9	3028822 13628 102 3261046 1.1 57.7 567 23.4 169.37156188492 34189.272699409 3495982.6570989
10	3042450 14452 102 3261046 1.1 57.7 567 23.4 161.63798994778 44993.419106028 5762634.4480205
12	3056902 646576 123 3264628 1.160282938048 57.729677329376 14961 -88.199462908567 -47.875787420797 -929703.60106962 58957052.506135
13	3703478 17002 133 3261046 1.2 57.7 566 0 14.560843830217 4199.4798994778 49679.549741083
14	3720480 17083 164 3261046 1.3 57.7 565 -4.5 2.5974803843768 -2.5154513483448 1919.0165001657
15	3737563 15253 164 3261046 1.3 57.7 565 0.973 9.884540049484 1562.4967281607 7612.8481007772
26	3752816 13663 1052 3261046 3.1 57.7 547 23.4 326.6 92882.008137907 24942639.906041
27	3766479 14273 1052 3261046 3.1 57.7 547 23.4 162.7 37010.848932711 3909946.5447413
28	3780752 645399 1060 3264622 3.147779141557 57.729677254209 14931 -88.19996787365 -47.867183198049 -945134.68540026 61049599.819561
29	4426151 16783 1161 3261046 3.2 57.7 546 0.032884880516629 14.102022934461 5544.8340158451 67922.784353263
30	4442934 16964 1270 3261046 3.3 57.7 545 -4.5 2.5744401467033 -2.2388448783298 1695.0576108798
31	4459898 14632 1270 3261046 3.3 57.7 545 0.973 10.54664878628 1614.0428283868 7790.7846453174
34	4474530 16460 2142 3261046 4.1 57.7 537 30.650841819768 162.7 58886.990867982 7933431.7012122
35	4490990 11337 2142 3261046 4.1 57.7 537 173.4 176.6 94137.176447207 16503735.785253
36	4502327 644108 2150 3264353 4.147775429674 57.725561297027 14900 -88.195575258138 -47.873461112304 -926873.71121151 59375756.560738
37	5146435 15310 2308 3261046 4.2 57.7 536 0 12.263446774093 2631.6799065343 26748.160252653
38	5161745 15418 2474 3261046 4.3 57.7 535 -4.5 2.6 -2.5729001301876 1367.5154794062
39	5177163 14069 2474 3261046 4.3 57.7 535 0.973 9.0966188793191 1088.9663687829 3730.4238906353
42	5191232 14802 3802 3261046 5.1 57.7 527 23.4 167.69899991603 53331.587204074 7736261.8426879
43	5206034 12858 3802 3261046 5.1 57.7 527 33.3 176.6 81190.006173559 13542778.361384
44	5218892 642539 3808 3264349 5.147768881575 57.725561279479 14860 -88.198507154676 -47.862003396071 -928241.01542478 59611582.933641
45	5861431 12954 4037 3261046 5.2 57.7 526 0 16.052021494959 2841.9899991603 34878.550125433
46	5874385 12478 4272 3261046 5.3 57.7 525 -4.5 2.6 -2.5616935493725 2015.1842991419
47	5886863 12908 4272 3261046 5.3 57.7 525 0.973 11.814936330298 1300.7197630416 6479.200533864
66	5899771 12304 13402 3261046 8.1 57.7 497 23.4 169.3219272085 30089.834021448 3188606.7969806
67	5912075 13291 13402 3261046 8.1 57.7 497 23.4 169.32548311363 35180.129868814 3871950.2192503
68	5925366 635337 13408 3264620 8.147770843466 57.729677223418 14681 -88.200202527786 -47.882017127129 -923750.76807713 59418937.083934
69	6560703 15268 13916 3261046 8.2 57.7 496 0.25645482385973 14.640976065842 4856.5321229637 56043.421537657
70	6575971 15029 14430 3261046 8.3 57.7 495 -4.5 2.6 143.6993131019 2428.9663115222